001_H_N02_M1 uhf/def2-svpd stable=opt
Stability UHF                                                         Gen
Number of atoms                            I                1
Info1-9                                    I   N=           9
          27          22           0           0           0         111
           7           1           2
Charge                                     I               -1
Multiplicity                               I                1
Number of electrons                        I                2
Number of alpha electrons                  I                1
Number of beta electrons                   I                1
Number of basis functions                  I                8
Number of independent functions            I                8
Number of point charges in /Mol/           I                0
Number of translation vectors              I                0
Atomic numbers                             I   N=           1
           1
Nuclear charges                            R   N=           1
  1.00000000E+00
Current cartesian coordinates              R   N=           3
  0.00000000E+00  0.00000000E+00  0.00000000E+00
Force Field                                I                0
Int Atom Types                             I   N=           1
           0
MM charges                                 R   N=           1
  0.00000000E+00
Integer atomic weights                     I   N=           1
           1
Real atomic weights                        R   N=           1
  1.00782504E+00
Atom fragment info                         I   N=           1
           0
Atom residue num                           I   N=           1
           0
Nuclear spins                              I   N=           1
           1
Nuclear ZEff                               R   N=           1
 -1.00000000E+00
Nuclear ZNuc                               R   N=           1
  1.00000000E+00
Nuclear QMom                               R   N=           1
  0.00000000E+00
Nuclear GFac                               R   N=           1
  2.79284600E+00
MicOpt                                     I   N=           1
          -1
Number of contracted shells                I                4
Number of primitive shells                 I                6
Pure/Cartesian d shells                    I                0
Pure/Cartesian f shells                    I                0
Highest angular momentum                   I                1
Largest degree of contraction              I                3
Shell types                                I   N=           4
           0           0           1           1
Number of primitives per shell             I   N=           4
           3           1           1           1
Shell to atom map                          I   N=           4
           1           1           1           1
Primitive exponents                        R   N=           6
  1.30107010E+01  1.96225720E+00  4.44537960E-01  1.21949620E-01  8.00000000E-01
  1.17040991E-01
Contraction coefficients                   R   N=           6
  3.34854848E-02  2.34721871E-01  8.13770285E-01  1.00000000E+00  1.00000000E+00
  1.00000000E+00
Coordinates of each shell                  R   N=          12
  0.00000000E+00  0.00000000E+00  0.00000000E+00  0.00000000E+00  0.00000000E+00
  0.00000000E+00  0.00000000E+00  0.00000000E+00  0.00000000E+00  0.00000000E+00
  0.00000000E+00  0.00000000E+00
Constraint Structure                       R   N=           3
  0.00000000E+00  0.00000000E+00  0.00000000E+00
Num ILSW                                   I              100
ILSW                                       I   N=         100
           1           0           0           0           2           1
           0           0           0           0           0          -1
           5           0           0           0           0           0
           0           0           0           0           0           0
           1           1           0           0           0           0
           0           0      100000           0          -1           0
           0           0           0           0           0           0
           0           0           0           1           0           0
           0           0           1           0           0           0
           0           0           4          41           0           0
           0           0           0           0           0           0
           0           0           0           1           0           0
           0           0           0           0           0           0
           0           0           0           0           0           0
           0           0           0           0           0           0
           0           0           0           0           0           0
           0           0           0           0
Num RLSW                                   I               41
RLSW                                       R   N=          41
  1.00000000E+00  1.00000000E+00  1.00000000E+00  1.00000000E+00  1.00000000E+00
  0.00000000E+00  0.00000000E+00  1.00000000E+00  0.00000000E+00  0.00000000E+00
  0.00000000E+00  0.00000000E+00  1.00000000E+00  0.00000000E+00  0.00000000E+00
  0.00000000E+00  0.00000000E+00  1.00000000E+00  0.00000000E+00  0.00000000E+00
  0.00000000E+00  0.00000000E+00  1.00000000E+00  0.00000000E+00  0.00000000E+00
  0.00000000E+00  0.00000000E+00  1.00000000E+00  0.00000000E+00  0.00000000E+00
  0.00000000E+00  0.00000000E+00  1.00000000E+00  0.00000000E+00  0.00000000E+00
  0.00000000E+00  0.00000000E+00  0.00000000E+00  1.00000000E+00  1.00000000E+00
  0.00000000E+00
MxBond                                     I                1
NBond                                      I   N=           1
           0
IBond                                      I   N=           1
           0
RBond                                      R   N=           1
  0.00000000E+00
Virial Ratio                               R      1.744646299044724E+00
SCF Energy                                 R     -4.488608733202805E-01
Total Energy                               R     -4.488608733202805E-01
S**2                                       R      2.220446049250313E-16
S**2 after annihilation                    R     -8.881784197001252E-16
RMS Density                                R      1.009988243913220E-12
External E-field                           R   N=          35
  0.00000000E+00  0.00000000E+00  0.00000000E+00  0.00000000E+00  0.00000000E+00
  0.00000000E+00  0.00000000E+00  0.00000000E+00  0.00000000E+00  0.00000000E+00
  0.00000000E+00  0.00000000E+00  0.00000000E+00  0.00000000E+00  0.00000000E+00
  0.00000000E+00  0.00000000E+00  0.00000000E+00  0.00000000E+00  0.00000000E+00
  0.00000000E+00  0.00000000E+00  0.00000000E+00  0.00000000E+00  0.00000000E+00
  0.00000000E+00  0.00000000E+00  0.00000000E+00  0.00000000E+00  0.00000000E+00
  0.00000000E+00  0.00000000E+00  0.00000000E+00  0.00000000E+00  0.00000000E+00
IOpCl                                      I                1
IROHF                                      I                0
Alpha Orbital Energies                     R   N=           8
  2.20596541E-02  5.49371549E-01  5.49371549E-01  5.49371549E-01  1.05780043E+00
  2.32708794E+00  2.32708794E+00  2.32708794E+00
Beta Orbital Energies                      R   N=           8
  2.20596541E-02  5.49371549E-01  5.49371549E-01  5.49371549E-01  1.05780043E+00
  2.32708794E+00  2.32708794E+00  2.32708794E+00
Alpha MO coefficients                      R   N=          64
  3.22373580E-01  7.51252445E-01 -5.32594230E-17  1.90133931E-16  1.86462420E-17
 -2.94249452E-16  1.25586129E-15  1.12154979E-16  2.36400046E-16 -3.30523300E-16
 -1.21443173E-02 -7.56126005E-04 -3.07949579E-02  3.71011880E-01  2.30998353E-02
  9.40793535E-01 -2.89410876E-16  8.31236893E-17 -2.88862178E-02 -1.12183899E-02
  1.16670369E-02  8.82481055E-01  3.42724570E-01 -3.56430847E-01 -1.17325447E-15
 -1.12356085E-15  1.06998869E-02 -3.11442066E-02 -3.45491227E-03 -3.26884176E-01
  9.51463167E-01  1.05548419E-01  1.33384406E+00 -1.14833987E+00  2.53378765E-16
 -2.15877228E-19  2.02853152E-17 -1.21253662E-16  8.21634590E-16 -4.49382355E-16
 -6.48146990E-16  6.11498665E-16  9.96887550E-01  1.01920900E-01  3.83784533E-01
 -3.34035830E-01 -3.41515273E-02 -1.28598040E-01  8.48515053E-17 -4.67721034E-16
 -3.84921645E-01  5.02784284E-01  8.66317792E-01  1.28979062E-01 -1.68472327E-01
 -2.90284679E-01 -2.86874958E-16 -2.70663231E-16  9.75385297E-02  9.42487835E-01
 -5.03652798E-01 -3.26830882E-02 -3.15807642E-01  1.68763348E-01
Beta MO coefficients                       R   N=          64
  3.22373580E-01  7.51252445E-01 -5.32594230E-17  1.90133931E-16  1.86462420E-17
 -2.94249452E-16  1.25586129E-15  1.12154979E-16  2.36400046E-16 -3.30523300E-16
 -1.21443173E-02 -7.56126005E-04 -3.07949579E-02  3.71011880E-01  2.30998353E-02
  9.40793535E-01 -2.89410876E-16  8.31236893E-17 -2.88862178E-02 -1.12183899E-02
  1.16670369E-02  8.82481055E-01  3.42724570E-01 -3.56430847E-01 -1.17325447E-15
 -1.12356085E-15  1.06998869E-02 -3.11442066E-02 -3.45491227E-03 -3.26884176E-01
  9.51463167E-01  1.05548419E-01  1.33384406E+00 -1.14833987E+00  2.53378765E-16
 -2.15877228E-19  2.02853152E-17 -1.21253662E-16  8.21634590E-16 -4.49382355E-16
 -6.48146990E-16  6.11498665E-16  9.96887550E-01  1.01920900E-01  3.83784533E-01
 -3.34035830E-01 -3.41515273E-02 -1.28598040E-01  8.48515053E-17 -4.67721034E-16
 -3.84921645E-01  5.02784284E-01  8.66317792E-01  1.28979062E-01 -1.68472327E-01
 -2.90284679E-01 -2.86874958E-16 -2.70663231E-16  9.75385297E-02  9.42487835E-01
 -5.03652798E-01 -3.26830882E-02 -3.15807642E-01  1.68763348E-01
Total SCF Density                          R   N=          36
  2.07849450E-01  4.84367880E-01  1.12876047E+00 -3.43388617E-17 -8.00225435E-17
  5.67313228E-33  1.22588312E-16  2.85677160E-16 -2.02528469E-32  7.23018231E-32
  1.20221115E-17  2.80160697E-17 -1.98617618E-33  7.09056655E-33  6.95364678E-34
 -1.89716498E-16 -4.42111240E-16  3.13431120E-32 -1.11893610E-31 -1.09732929E-32
  1.73165479E-31  8.09713002E-16  1.88693774E-15 -1.33772896E-31  4.77563688E-31
  4.68341871E-32 -7.39072994E-31  3.15437518E-30  7.23116043E-17  1.68513405E-16
 -1.19466190E-32  4.26489341E-32  4.18253776E-33 -6.60030823E-32  2.81702195E-31
  2.51574788E-32
Spin SCF Density                           R   N=          36
  0.00000000E+00  0.00000000E+00  0.00000000E+00  0.00000000E+00  0.00000000E+00
  0.00000000E+00  0.00000000E+00  0.00000000E+00  0.00000000E+00  0.00000000E+00
  0.00000000E+00  0.00000000E+00  0.00000000E+00  0.00000000E+00  0.00000000E+00
  0.00000000E+00  0.00000000E+00  0.00000000E+00  0.00000000E+00  0.00000000E+00
  0.00000000E+00  0.00000000E+00  0.00000000E+00  0.00000000E+00  0.00000000E+00
  0.00000000E+00  0.00000000E+00  0.00000000E+00  0.00000000E+00  0.00000000E+00
  0.00000000E+00  0.00000000E+00  0.00000000E+00  0.00000000E+00  0.00000000E+00
  0.00000000E+00
Mulliken Charges                           R   N=           1
 -1.00000000E+00
ONIOM Charges                              I   N=          16
          -1           0           0           0           0           0
           0           0           0           0           0           0
           0           0           0           0
ONIOM Multiplicities                       I   N=          16
           1           0           0           0           0           0
           0           0           0           0           0           0
           0           0           0           0
Atom Layers                                I   N=           1
           1
Atom Modifiers                             I   N=           1
           0
Force Field                                I                0
Int Atom Modified Types                    I   N=           1
           0
Link Atoms                                 I   N=           1
           0
Atom Modified MM Charges                   R   N=           1
  0.00000000E+00
Link Distances                             R   N=           4
  0.00000000E+00  0.00000000E+00  0.00000000E+00  0.00000000E+00
Cartesian Gradient                         R   N=           3
  0.00000000E+00  0.00000000E+00  0.00000000E+00
Dipole Moment                              R   N=           3
  1.53653114E-15 -6.46800162E-15 -5.81657273E-16
Quadrupole Moment                          R   N=           6
  0.00000000E+00  0.00000000E+00  0.00000000E+00  3.26744771E-30  2.92300135E-31
 -1.24336651E-30
Anisotropic Hyperfine tensors              R   N=           6
  0.00000000E+00  0.00000000E+00  0.00000000E+00  0.00000000E+00  0.00000000E+00
  0.00000000E+00
Isotropic Hyperfine splittings             R   N=           1
  0.00000000E+00
QEq coupling tensors                       R   N=           6
  0.00000000E+00  0.00000000E+00  0.00000000E+00  0.00000000E+00  0.00000000E+00
  0.00000000E+00
ETran NETS                                 I               20
ETran NETV                                 I               48
ETran scalars                              I   N=          20
           3          16           1          10          -3           0
           0           0           0           0           0           0
           0           0           0           0           0           0
           0           0
ETran spin                                 I   N=           3
           2           2           2
ETran sym                                  I   N=           3
           0           0           0
ETran state values                         R   N=          48
 -3.10183366E-01  0.00000000E+00  0.00000000E+00  0.00000000E+00  0.00000000E+00
  0.00000000E+00  0.00000000E+00  0.00000000E+00  0.00000000E+00  0.00000000E+00
  0.00000000E+00  0.00000000E+00  0.00000000E+00  0.00000000E+00  0.00000000E+00
  0.00000000E+00 -3.10183366E-01  0.00000000E+00  0.00000000E+00  0.00000000E+00
  0.00000000E+00  0.00000000E+00  0.00000000E+00  0.00000000E+00  0.00000000E+00
  0.00000000E+00  0.00000000E+00  0.00000000E+00  0.00000000E+00  0.00000000E+00
  0.00000000E+00  0.00000000E+00 -3.10183366E-01  0.00000000E+00  0.00000000E+00
  0.00000000E+00  0.00000000E+00  0.00000000E+00  0.00000000E+00  0.00000000E+00
  0.00000000E+00  0.00000000E+00  0.00000000E+00  0.00000000E+00  0.00000000E+00
  0.00000000E+00  0.00000000E+00  0.00000000E+00
