018_Ar_N18_M1 uhf/def2-svpd stable=opt
Stability UHF                                                         Gen
Number of atoms                            I                1
Info1-9                                    I   N=           9
          49          44           0           0           0         111
           7           1           2
Charge                                     I                0
Multiplicity                               I                1
Number of electrons                        I               18
Number of alpha electrons                  I                9
Number of beta electrons                   I                9
Number of basis functions                  I               27
Number of independent functions            I               27
Number of point charges in /Mol/           I                0
Number of translation vectors              I                0
Atomic numbers                             I   N=           1
          18
Nuclear charges                            R   N=           1
  1.80000000E+01
Current cartesian coordinates              R   N=           3
  0.00000000E+00  0.00000000E+00  0.00000000E+00
Force Field                                I                0
Int Atom Types                             I   N=           1
           0
MM charges                                 R   N=           1
  0.00000000E+00
Integer atomic weights                     I   N=           1
          40
Real atomic weights                        R   N=           1
  3.99623831E+01
Atom fragment info                         I   N=           1
           0
Atom residue num                           I   N=           1
           0
Nuclear spins                              I   N=           1
           0
Nuclear ZEff                               R   N=           1
 -1.49000000E+01
Nuclear ZNuc                               R   N=           1
  1.80000000E+01
Nuclear QMom                               R   N=           1
  0.00000000E+00
Nuclear GFac                               R   N=           1
  0.00000000E+00
MicOpt                                     I   N=           1
          -1
Number of contracted shells                I               11
Number of primitive shells                 I               21
Pure/Cartesian d shells                    I                0
Pure/Cartesian f shells                    I                0
Highest angular momentum                   I                2
Largest degree of contraction              I                5
Shell types                                I   N=          11
           0           0           0           0           0           1
           1           1           1          -2          -2
Number of primitives per shell             I   N=          11
           5           3           1           1           1           5
           1           1           1           1           1
Shell to atom map                          I   N=          11
           1           1           1           1           1           1
           1           1           1           1           1
Primitive exponents                        R   N=          21
  1.17971198E+04  1.77435228E+03  4.03188757E+02  1.13249340E+02  3.48352982E+01
  5.86147750E+01  6.49220451E+00  2.71170144E+00  5.44129745E-01  2.05174111E-01
  6.64424870E-02  3.56287073E+02  8.35931329E+01  2.61867040E+01  9.22572759E+00
  3.39227550E+00  9.47405340E-01  2.56591351E-01  5.94914551E-02  6.96000000E-01
  1.43094939E-01
Contraction coefficients                   R   N=          21
  5.38549006E-03  4.03352083E-02  1.82563620E-01  4.73235417E-01  4.39495401E-01
 -9.35150414E-02  5.70791302E-01  4.96240750E-01  1.00000000E+00  1.00000000E+00
  1.00000000E+00 -8.64801785E-03 -6.30665684E-02 -2.40775894E-01 -4.84842325E-01
 -3.88511003E-01  1.00000000E+00  1.00000000E+00  1.00000000E+00  1.00000000E+00
  1.00000000E+00
Coordinates of each shell                  R   N=          33
  0.00000000E+00  0.00000000E+00  0.00000000E+00  0.00000000E+00  0.00000000E+00
  0.00000000E+00  0.00000000E+00  0.00000000E+00  0.00000000E+00  0.00000000E+00
  0.00000000E+00  0.00000000E+00  0.00000000E+00  0.00000000E+00  0.00000000E+00
  0.00000000E+00  0.00000000E+00  0.00000000E+00  0.00000000E+00  0.00000000E+00
  0.00000000E+00  0.00000000E+00  0.00000000E+00  0.00000000E+00  0.00000000E+00
  0.00000000E+00  0.00000000E+00  0.00000000E+00  0.00000000E+00  0.00000000E+00
  0.00000000E+00  0.00000000E+00  0.00000000E+00
Constraint Structure                       R   N=           3
  0.00000000E+00  0.00000000E+00  0.00000000E+00
Num ILSW                                   I              100
ILSW                                       I   N=         100
           1           0           0           0           2           1
           0           0           0           0           0          -1
           5           0           0           0           0           0
           0           0           0           0           0           0
           1           1           0           0           0           0
           0           0      100000           0          -1           0
           0           0           0           0           0           0
           0           0           0           1           0           0
           0           0           1           0           0           0
           0           0           4          41           0           0
           0           0           0           0           0           0
           0           0           0           1           0           0
           0           0           0           0           0           0
           0           0           0           0           0           0
           0           0           0           0           0           0
           0           0           0           0           0           0
           0           0           0           0
Num RLSW                                   I               41
RLSW                                       R   N=          41
  1.00000000E+00  1.00000000E+00  1.00000000E+00  1.00000000E+00  1.00000000E+00
  0.00000000E+00  0.00000000E+00  1.00000000E+00  0.00000000E+00  0.00000000E+00
  0.00000000E+00  0.00000000E+00  1.00000000E+00  0.00000000E+00  0.00000000E+00
  0.00000000E+00  0.00000000E+00  1.00000000E+00  0.00000000E+00  0.00000000E+00
  0.00000000E+00  0.00000000E+00  1.00000000E+00  0.00000000E+00  0.00000000E+00
  0.00000000E+00  0.00000000E+00  1.00000000E+00  0.00000000E+00  0.00000000E+00
  0.00000000E+00  0.00000000E+00  1.00000000E+00  0.00000000E+00  0.00000000E+00
  0.00000000E+00  0.00000000E+00  0.00000000E+00  1.00000000E+00  1.00000000E+00
  0.00000000E+00
MxBond                                     I                1
NBond                                      I   N=           1
           0
IBond                                      I   N=           1
           0
RBond                                      R   N=           1
  0.00000000E+00
Virial Ratio                               R      2.000284985460799E+00
SCF Energy                                 R     -5.266323968556851E+02
Total Energy                               R     -5.266323968556851E+02
S**2                                       R      1.953992523340276E-14
S**2 after annihilation                    R     -3.375077994860506E-14
RMS Density                                R      5.229429850772000E-09
External E-field                           R   N=          35
  0.00000000E+00  0.00000000E+00  0.00000000E+00  0.00000000E+00  0.00000000E+00
  0.00000000E+00  0.00000000E+00  0.00000000E+00  0.00000000E+00  0.00000000E+00
  0.00000000E+00  0.00000000E+00  0.00000000E+00  0.00000000E+00  0.00000000E+00
  0.00000000E+00  0.00000000E+00  0.00000000E+00  0.00000000E+00  0.00000000E+00
  0.00000000E+00  0.00000000E+00  0.00000000E+00  0.00000000E+00  0.00000000E+00
  0.00000000E+00  0.00000000E+00  0.00000000E+00  0.00000000E+00  0.00000000E+00
  0.00000000E+00  0.00000000E+00  0.00000000E+00  0.00000000E+00  0.00000000E+00
IOpCl                                      I                1
IROHF                                      I                0
Alpha Orbital Energies                     R   N=          27
 -1.18579471E+02 -1.23309419E+01 -9.58837248E+00 -9.58837248E+00 -9.58837248E+00
 -1.27927928E+00 -5.94745144E-01 -5.94745144E-01 -5.94745144E-01  1.45488493E-01
  1.79426906E-01  1.79426906E-01  1.79426906E-01  3.76245985E-01  3.76245985E-01
  3.76245985E-01  3.76245985E-01  3.76245985E-01  1.07482974E+00  1.27512893E+00
  1.27512893E+00  1.27512893E+00  1.27512893E+00  1.27512893E+00  1.46897671E+00
  1.46897671E+00  1.46897671E+00
Beta Orbital Energies                      R   N=          27
 -1.18579471E+02 -1.23309419E+01 -9.58837248E+00 -9.58837248E+00 -9.58837248E+00
 -1.27927928E+00 -5.94745144E-01 -5.94745144E-01 -5.94745144E-01  1.45488493E-01
  1.79426906E-01  1.79426906E-01  1.79426906E-01  3.76245985E-01  3.76245985E-01
  3.76245985E-01  3.76245985E-01  3.76245985E-01  1.07482974E+00  1.27512893E+00
  1.27512893E+00  1.27512893E+00  1.27512893E+00  1.27512893E+00  1.46897671E+00
  1.46897671E+00  1.46897671E+00
Alpha MO coefficients                      R   N=         729
  9.93810669E-01  2.28958383E-02 -1.04443177E-02  7.45141868E-03 -2.32262623E-03
  3.03015743E-17  6.59212743E-17  1.85073579E-16  5.71629779E-17 -1.11378703E-16
  2.35317459E-16 -1.24462343E-16  1.23051540E-16 -1.65673909E-16  1.35002888E-16
 -9.07652899E-17  6.01314401E-17 -7.59029876E-16 -4.60515533E-16  5.40959689E-16
 -5.40802781E-17  4.46166567E-16  3.80317754E-16  2.29266550E-16 -2.69205058E-16
  2.76455644E-17 -2.21509650E-16 -3.17453919E-01  1.02876685E+00  3.27802574E-02
 -1.09643585E-02  2.90756017E-03  7.00281334E-16  3.81678012E-16  6.51129222E-16
  1.77623057E-16  7.28449517E-16  2.34975097E-17 -3.37922007E-16 -9.20731289E-16
  1.42470305E-16  9.22422725E-17  3.94159512E-16 -1.21760464E-16  1.40670994E-16
 -8.60927537E-16 -5.77807726E-16 -6.36234998E-16 -8.50375858E-16 -6.87057494E-17
  4.31396009E-16  3.00937277E-16  3.17955392E-16  4.33786552E-16  1.76912738E-17
  1.51566434E-17  6.40440579E-17 -8.76784205E-16  2.54395720E-16  3.92993578E-01
  8.41282339E-01 -3.22901208E-01 -1.73929555E-02 -3.72331435E-02  1.42908349E-02
  2.39767916E-03  5.13271780E-03 -1.97004109E-03 -6.58120059E-04 -1.40883926E-03
  5.40741056E-04 -6.08928430E-17 -1.13374468E-16  5.39551316E-16  2.20703922E-16
 -3.32983808E-16  2.63287247E-16  4.21572574E-17 -2.50003475E-16 -2.63530657E-16
  1.54536263E-16  2.03981705E-16 -2.14642486E-16  1.43537113E-16 -4.27604475E-16
  1.12783397E-16  8.10091850E-01 -4.84124032E-01 -2.75391052E-01 -3.58527271E-02
  2.14261713E-02  1.21881491E-02  4.94242261E-03 -2.95367194E-03 -1.68017857E-03
 -1.35660664E-03  8.10730136E-04  4.61178976E-04 -9.92080115E-17 -2.31632223E-16
 -1.06468037E-16  6.01666920E-16  5.48388503E-17  1.52343988E-16  1.12687934E-16
  6.53014294E-18 -3.93850497E-16 -2.13558772E-16  1.51347989E-16 -1.29849567E-15
  1.13434263E-15 -4.20723533E-16  2.86698492E-16  3.94680070E-01  1.55990589E-01
  8.86769245E-01 -1.74675956E-02 -6.90377024E-03 -3.92462851E-02  2.40796856E-03
  9.51708641E-04  5.41023634E-03 -6.60944316E-04 -2.61227006E-04 -1.48501314E-03
  1.41036982E-16 -6.71960072E-17  1.17344255E-16  2.37474256E-17  4.33156907E-16
 -4.43203436E-17 -2.63391783E-16 -2.30648614E-16 -7.27474546E-17 -1.88352526E-16
  8.97160138E-02 -5.69573500E-01  7.55094349E-01  4.13760369E-01  1.08401853E-02
  3.46840673E-16  1.07826417E-16  4.99835330E-17  2.88560466E-17  5.50086814E-16
  2.20036350E-16  2.96620293E-16 -8.14388371E-16  4.47491909E-17 -8.82305586E-17
  3.19217935E-16  5.69137053E-17  2.05070385E-16  4.36295074E-16  3.28892546E-16
  1.43338840E-16 -1.38097628E-16 -2.10683193E-16 -3.05879065E-17  3.74638364E-17
  4.64575677E-16  3.78270205E-16 -8.97990444E-18 -3.23987488E-17  1.98845518E-16
  1.26345326E-18 -4.07620663E-16 -6.99345312E-02  1.28925935E-01  2.50786360E-01
 -1.20719192E-01  2.22548640E-01  4.32900976E-01 -1.49651645E-01  2.75886290E-01
  5.36653222E-01 -1.38416257E-02  2.55173590E-02  4.96362936E-02 -1.54647127E-16
  1.57311273E-16  2.33278230E-16 -3.83318288E-17 -7.10178894E-17 -1.23220062E-17
  2.05359240E-16 -1.13249436E-16 -6.27922990E-16  2.57092699E-16  1.86704742E-17
 -1.20088291E-16  3.40338207E-16 -6.55386602E-16  9.13553913E-16 -5.66158430E-02
  2.46702784E-01 -1.42614573E-01 -9.77288145E-02  4.25852012E-01 -2.46177614E-01
 -1.21151224E-01  5.27914851E-01 -3.05178360E-01 -1.12055560E-02  4.88280616E-02
 -2.82266500E-02 -1.24190574E-16  1.40229255E-16  1.20076107E-16  9.39281675E-17
 -1.02997979E-16 -2.67036049E-16  1.19182748E-16  1.60972303E-17 -1.64784737E-16
 -1.09734321E-16  1.29510698E-17 -1.12744174E-16  5.77081813E-16 -5.92456835E-16
 -1.97980752E-16  2.76243265E-01  8.32008010E-02  3.42610425E-02  4.76844032E-01
  1.43619087E-01  5.91405319E-02  5.91127995E-01  1.78039898E-01  7.33145886E-02
  5.46747910E-02  1.64673206E-02  6.78103532E-03  1.85475218E-16 -1.85355334E-16
  3.58401712E-17 -1.34938437E-16 -9.03175762E-18  2.21699273E-16 -2.94538759E-16
  1.58030946E-16  2.17426902E-16 -1.00190333E-16 -2.24394695E-02  1.45281979E-01
 -5.02842301E-02 -1.11197486E+00  1.62925448E+00 -4.42298093E-17  1.26262959E-17
 -1.52800267E-16 -4.66991520E-17  2.47037744E-17 -2.31655260E-16 -7.40316243E-16
  8.61544000E-17 -1.40858281E-15  2.65746690E-15 -2.40767308E-16  4.73875072E-15
  4.80374166E-16  5.81799475E-17 -2.61123620E-16  6.35917233E-17 -2.05407740E-18
  1.32358638E-15  4.34150179E-16 -1.17322327E-15  3.88455196E-16  2.58912444E-16
 -6.44008250E-18 -2.95799272E-16  2.25447273E-16  3.37505922E-15 -4.86809503E-15
  2.05996750E-02 -3.79759883E-02 -7.38708018E-02  3.11305748E-02 -5.73899512E-02
 -1.11634796E-01  1.12157927E-01 -2.06765792E-01 -4.02200324E-01 -2.76956321E-01
  5.10575531E-01  9.93170304E-01 -8.10839939E-17  6.46746027E-17  1.25657440E-16
 -4.53966587E-17  2.18506713E-18  3.20862117E-16  4.34492347E-17  1.29467594E-16
 -1.11740401E-17  3.05429925E-17  1.90876256E-17 -1.30686253E-16  2.27384631E-17
  1.09784958E-15 -1.53365331E-15 -6.14729712E-02 -5.81535726E-02  1.27535662E-02
 -9.28989864E-02 -8.78826555E-02  1.92734035E-02 -3.34698533E-01 -3.16625584E-01
  6.94386463E-02  8.26485269E-01  7.81856972E-01 -1.71467792E-01  2.30862055E-17
  3.56840192E-17 -4.56611847E-17  9.60002472E-17  9.18004190E-17 -5.87226141E-20
  2.90228848E-16 -4.43818417E-16 -2.45070952E-16  6.63917528E-16  8.60820505E-17
 -5.69183194E-16  2.39886558E-16  4.16380481E-15 -6.03808486E-15 -5.58582568E-02
  4.99940392E-02 -4.12779462E-02 -8.44139356E-02  7.55518316E-02 -6.23799255E-02
 -3.04128403E-01  2.72199818E-01 -2.24743782E-01  7.50997153E-01 -6.72154544E-01
  5.54969344E-01 -6.89168700E-17 -6.14020369E-17 -1.78233217E-16  3.47738281E-16
  2.35348230E-16  9.53927012E-17  2.97288304E-16 -3.96599849E-17 -2.56748498E-16
 -5.66962742E-17 -3.72214042E-17  2.84666521E-16 -1.28820663E-15  1.86553016E-15
 -9.20913395E-16  1.83849223E-16 -2.64917934E-17  1.10622431E-16  5.31542356E-17
  8.85550840E-17  9.31819114E-17  1.10993310E-16  8.55524754E-17  2.58160864E-17
 -3.15257487E-16 -3.70541552E-16 -2.17463510E-16  2.34743203E-02 -4.49154049E-03
  5.92460579E-02 -8.06995075E-03  1.34398124E-01  1.47333224E-01 -2.81905134E-02
  3.71849434E-01 -5.06498951E-02  8.43530661E-01  2.38258769E-18 -2.53416156E-17
  1.77289905E-16 -4.57456372E-16  4.78664620E-16 -3.64516759E-17  4.11237577E-17
 -8.03581229E-17 -9.87935135E-17 -9.13034568E-17 -1.07715868E-16 -2.72361223E-16
 -1.08619684E-16 -8.21608685E-17  6.58656617E-16  1.50042517E-16  2.39090830E-16
  8.81319578E-04 -9.42211842E-02  2.65259059E-02  1.12066576E-01 -8.26700708E-03
  5.53147665E-03 -5.91365827E-01  1.66486066E-01  7.03369886E-01 -5.18866911E-02
  3.79477510E-18 -6.52323452E-17  5.36706411E-16 -9.54832017E-16  5.29096556E-16
  9.38236824E-17 -2.77693701E-19  2.00771145E-17 -4.62516875E-17  1.26481790E-16
 -7.44730095E-17  1.27007109E-16 -1.47218759E-16 -8.47604784E-18 -4.00695291E-16
 -1.52225886E-17  1.82672570E-16 -7.17519196E-02  9.68831348E-02 -3.78547370E-03
  8.45769048E-02  2.25173375E-02 -4.50340692E-01  6.08073180E-01 -2.37589859E-02
  5.30834883E-01  1.41326858E-01 -1.01398189E-18  1.05798312E-17 -1.65348325E-16
  5.55174766E-16 -6.11408539E-16 -9.38484852E-17 -5.19121556E-17  1.03079315E-17
 -9.73540197E-17 -8.16966393E-17  2.24710356E-18 -1.38938377E-16  1.31559072E-16
  1.47043181E-16  4.56174154E-16  1.09727932E-18 -4.74936273E-16  6.69018975E-02
  5.36364666E-02  1.07101958E-01  1.50726431E-02 -5.62009297E-02  4.19900219E-01
  3.36641634E-01  6.72210167E-01  9.46012948E-02 -3.52737121E-01  6.14401595E-17
 -4.02145187E-16  3.79115841E-16  2.31056193E-15 -3.78622195E-15  2.00238337E-16
  2.70220801E-16 -7.84685078E-17  5.16030437E-16  7.78509215E-16 -2.43446078E-16
 -2.72484823E-17 -4.47335916E-16  2.32444411E-16 -5.28099266E-16 -2.17009117E-16
 -2.00738973E-16  1.09696265E-01  3.23770763E-02 -8.06871404E-02  4.69554455E-02
  2.03105573E-02  6.88492966E-01  2.03210102E-01 -5.06421331E-01  2.94709158E-01
  1.27476317E-01 -8.12430895E-02  6.33349713E-01 -2.59703140E+00  3.22590420E+00
 -1.20528222E+00 -1.91173652E-16  1.63805776E-16 -1.11589619E-16 -5.70406918E-16
  7.06522195E-16 -4.95312955E-16  5.94069838E-16 -9.66294521E-16  7.63810775E-16
 -2.61503349E-16  2.84422962E-16 -1.29209429E-16 -9.35389616E-16 -7.19237842E-17
 -8.10815832E-16 -2.17683038E-15  1.90209028E-15  3.77887998E-16  3.80604811E-16
 -2.18372853E-16  1.68676652E-15 -1.80927321E-15 -7.74204710E-17  6.16364549E-16
 -1.77993839E-15  1.83778066E-15 -4.66997392E-16 -3.25796731E-16  1.68007266E-15
 -4.70124928E-16 -1.35486109E-15  5.74433777E-15 -1.70259615E-15  1.91804717E-15
 -5.92197698E-15  2.07641181E-15 -1.32657976E-15  2.15320105E-15 -9.54315347E-16
 -6.18575711E-01  4.43414903E-01 -2.56775012E-01  6.92905662E-01  1.01164441E-01
  3.08731754E-01 -2.21308820E-01  1.28156665E-01 -3.45829906E-01 -5.04912735E-02
  1.40213377E-16 -8.02412708E-16  2.20466958E-15 -2.60356922E-15  1.08247086E-15
 -8.03743004E-17 -3.04025945E-16  1.31084505E-15 -2.69321035E-16 -1.18561668E-15
  4.27235603E-15  3.54784505E-16  1.60030229E-15 -4.26919297E-15  7.80419796E-17
 -1.05964107E-15  1.32606816E-15  1.18462760E-01  8.62411990E-01  4.71006280E-01
 -3.07712386E-01  2.47420490E-01 -5.91248818E-02 -4.30430684E-01 -2.35079704E-01
  1.53579559E-01 -1.23487813E-01 -5.66988040E-17  4.88816816E-16 -2.86393119E-15
  3.65419444E-15 -1.45964900E-15 -2.65592458E-15  2.12215778E-15 -7.73850829E-16
 -8.78181537E-15  7.08419428E-15 -2.66131227E-15  9.06470651E-15 -7.04742018E-15
  2.90062769E-15 -3.31237558E-15  2.09785134E-15 -1.04744214E-15  6.90072007E-01
 -7.18744968E-02  1.11581607E-01  6.31413957E-01  4.92990096E-01 -3.44415627E-01
  3.58726330E-02 -5.56904910E-02 -3.15139335E-01 -2.46051848E-01  2.52712158E-16
 -1.58134180E-15  5.34494149E-15 -6.23410131E-15  2.60496656E-15 -2.02405036E-15
  7.67651035E-16 -1.47445315E-15 -6.72349050E-15  2.58795576E-15 -4.92897357E-15
  6.85878024E-15 -2.84636379E-15  5.08429569E-15 -2.46848622E-15  1.09999148E-15
 -2.06174918E-15 -5.04179810E-01 -4.15998148E-01  4.31318192E-01 -1.27891028E-01
  7.11263212E-01  2.51636645E-01  2.07625090E-01 -2.15271339E-01  6.38305394E-02
 -3.54992178E-01 -3.08676327E-16  1.61893580E-15 -6.61226506E-15  8.26635273E-15
 -2.99477362E-15 -3.87838543E-15 -4.21184912E-15  1.17097540E-15 -1.28928487E-14
 -1.39161625E-14  3.91543935E-15  1.30565070E-14  1.39242158E-14 -4.07551590E-15
 -4.27827758E-15 -4.52971733E-15  1.68560418E-15 -9.20467398E-02 -1.30180546E-01
  8.05774431E-01  3.81698472E-01 -5.61384769E-01  4.59406196E-02  6.49732401E-02
 -4.02162822E-01 -1.90506088E-01  2.80187698E-01  6.25582679E-17 -8.06464082E-16
  2.67728300E-15 -2.88094914E-15  1.20606827E-15 -3.38149284E-01  2.06622022E-01
 -6.47757195E-02 -1.12225872E+00  6.85742588E-01 -2.14979358E-01  1.13737613E+00
 -6.94979898E-01  2.17875241E-01 -3.73798155E-01  2.28404833E-01 -7.16046006E-02
 -8.24711318E-16  2.80060078E-15 -4.57637322E-15 -8.87485477E-15 -7.84790798E-15
  4.29786633E-16 -1.56425730E-15  2.40004360E-15  4.15487647E-15  3.81254123E-15
 -5.12221846E-17  4.11536484E-16 -1.37493474E-15  1.30787560E-15 -5.12571339E-16
 -2.16527354E-01 -3.21478149E-01  1.04886590E-01 -7.18616663E-01 -1.06693012E+00
  3.48100367E-01  7.28296803E-01  1.08130222E+00 -3.52789461E-01 -2.39354419E-01
 -3.55369492E-01  1.15944098E-01 -1.81447694E-16  1.95038786E-15 -1.42121636E-14
 -1.62201917E-15  9.07766384E-15  7.24702107E-16 -6.15504894E-16  6.60533559E-15
  1.12295183E-15 -4.14624305E-15  1.75452347E-16 -1.08521912E-16  4.95630498E-16
 -6.63130633E-16  1.35788487E-16 -2.11162827E-03 -1.23258394E-01 -3.82147094E-01
 -7.00812732E-03 -4.09073192E-01 -1.26827980E+00  7.10253044E-03  4.14583621E-01
  1.28536419E+00 -2.33424345E-03 -1.36252721E-01 -4.22434367E-01  1.77176237E-15
  4.19746156E-15 -4.04233786E-16 -8.22219021E-16 -1.34667187E-15 -8.10733608E-16
 -2.07290983E-15  1.70741995E-16  2.66963603E-16  9.23189053E-16
Beta MO coefficients                       R   N=         729
  9.93810669E-01  2.28958383E-02 -1.04443177E-02  7.45141868E-03 -2.32262623E-03
  3.03015743E-17  6.59212743E-17  1.85073579E-16  5.71629779E-17 -1.11378703E-16
  2.35317459E-16 -1.24462343E-16  1.23051540E-16 -1.65673909E-16  1.35002888E-16
 -9.07652899E-17  6.01314401E-17 -7.59029876E-16 -4.60515533E-16  5.40959689E-16
 -5.40802781E-17  4.46166567E-16  3.80317754E-16  2.29266550E-16 -2.69205058E-16
  2.76455644E-17 -2.21509650E-16 -3.17453919E-01  1.02876685E+00  3.27802574E-02
 -1.09643585E-02  2.90756017E-03  7.00281334E-16  3.81678012E-16  6.51129222E-16
  1.77623057E-16  7.28449517E-16  2.34975097E-17 -3.37922007E-16 -9.20731289E-16
  1.42470305E-16  9.22422725E-17  3.94159512E-16 -1.21760464E-16  1.40670994E-16
 -8.60927537E-16 -5.77807726E-16 -6.36234998E-16 -8.50375858E-16 -6.87057494E-17
  4.31396009E-16  3.00937277E-16  3.17955392E-16  4.33786552E-16  1.76912738E-17
  1.51566434E-17  6.40440579E-17 -8.76784205E-16  2.54395720E-16  3.92993578E-01
  8.41282339E-01 -3.22901208E-01 -1.73929555E-02 -3.72331435E-02  1.42908349E-02
  2.39767916E-03  5.13271780E-03 -1.97004109E-03 -6.58120059E-04 -1.40883926E-03
  5.40741056E-04 -6.08928430E-17 -1.13374468E-16  5.39551316E-16  2.20703922E-16
 -3.32983808E-16  2.63287247E-16  4.21572574E-17 -2.50003475E-16 -2.63530657E-16
  1.54536263E-16  2.03981705E-16 -2.14642486E-16  1.43537113E-16 -4.27604475E-16
  1.12783397E-16  8.10091850E-01 -4.84124032E-01 -2.75391052E-01 -3.58527271E-02
  2.14261713E-02  1.21881491E-02  4.94242261E-03 -2.95367194E-03 -1.68017857E-03
 -1.35660664E-03  8.10730136E-04  4.61178976E-04 -9.92080115E-17 -2.31632223E-16
 -1.06468037E-16  6.01666920E-16  5.48388503E-17  1.52343988E-16  1.12687934E-16
  6.53014294E-18 -3.93850497E-16 -2.13558772E-16  1.51347989E-16 -1.29849567E-15
  1.13434263E-15 -4.20723533E-16  2.86698492E-16  3.94680070E-01  1.55990589E-01
  8.86769245E-01 -1.74675956E-02 -6.90377024E-03 -3.92462851E-02  2.40796856E-03
  9.51708641E-04  5.41023634E-03 -6.60944316E-04 -2.61227006E-04 -1.48501314E-03
  1.41036982E-16 -6.71960072E-17  1.17344255E-16  2.37474256E-17  4.33156907E-16
 -4.43203436E-17 -2.63391783E-16 -2.30648614E-16 -7.27474546E-17 -1.88352526E-16
  8.97160138E-02 -5.69573500E-01  7.55094349E-01  4.13760369E-01  1.08401853E-02
  3.46840673E-16  1.07826417E-16  4.99835330E-17  2.88560466E-17  5.50086814E-16
  2.20036350E-16  2.96620293E-16 -8.14388371E-16  4.47491909E-17 -8.82305586E-17
  3.19217935E-16  5.69137053E-17  2.05070385E-16  4.36295074E-16  3.28892546E-16
  1.43338840E-16 -1.38097628E-16 -2.10683193E-16 -3.05879065E-17  3.74638364E-17
  4.64575677E-16  3.78270205E-16 -8.97990444E-18 -3.23987488E-17  1.98845518E-16
  1.26345326E-18 -4.07620663E-16 -6.99345312E-02  1.28925935E-01  2.50786360E-01
 -1.20719192E-01  2.22548640E-01  4.32900976E-01 -1.49651645E-01  2.75886290E-01
  5.36653222E-01 -1.38416257E-02  2.55173590E-02  4.96362936E-02 -1.54647127E-16
  1.57311273E-16  2.33278230E-16 -3.83318288E-17 -7.10178894E-17 -1.23220062E-17
  2.05359240E-16 -1.13249436E-16 -6.27922990E-16  2.57092699E-16  1.86704742E-17
 -1.20088291E-16  3.40338207E-16 -6.55386602E-16  9.13553913E-16 -5.66158430E-02
  2.46702784E-01 -1.42614573E-01 -9.77288145E-02  4.25852012E-01 -2.46177614E-01
 -1.21151224E-01  5.27914851E-01 -3.05178360E-01 -1.12055560E-02  4.88280616E-02
 -2.82266500E-02 -1.24190574E-16  1.40229255E-16  1.20076107E-16  9.39281675E-17
 -1.02997979E-16 -2.67036049E-16  1.19182748E-16  1.60972303E-17 -1.64784737E-16
 -1.09734321E-16  1.29510698E-17 -1.12744174E-16  5.77081813E-16 -5.92456835E-16
 -1.97980752E-16  2.76243265E-01  8.32008010E-02  3.42610425E-02  4.76844032E-01
  1.43619087E-01  5.91405319E-02  5.91127995E-01  1.78039898E-01  7.33145886E-02
  5.46747910E-02  1.64673206E-02  6.78103532E-03  1.85475218E-16 -1.85355334E-16
  3.58401712E-17 -1.34938437E-16 -9.03175762E-18  2.21699273E-16 -2.94538759E-16
  1.58030946E-16  2.17426902E-16 -1.00190333E-16 -2.24394695E-02  1.45281979E-01
 -5.02842301E-02 -1.11197486E+00  1.62925448E+00 -4.42298093E-17  1.26262959E-17
 -1.52800267E-16 -4.66991520E-17  2.47037744E-17 -2.31655260E-16 -7.40316243E-16
  8.61544000E-17 -1.40858281E-15  2.65746690E-15 -2.40767308E-16  4.73875072E-15
  4.80374166E-16  5.81799475E-17 -2.61123620E-16  6.35917233E-17 -2.05407740E-18
  1.32358638E-15  4.34150179E-16 -1.17322327E-15  3.88455196E-16  2.58912444E-16
 -6.44008250E-18 -2.95799272E-16  2.25447273E-16  3.37505922E-15 -4.86809503E-15
  2.05996750E-02 -3.79759883E-02 -7.38708018E-02  3.11305748E-02 -5.73899512E-02
 -1.11634796E-01  1.12157927E-01 -2.06765792E-01 -4.02200324E-01 -2.76956321E-01
  5.10575531E-01  9.93170304E-01 -8.10839939E-17  6.46746027E-17  1.25657440E-16
 -4.53966587E-17  2.18506713E-18  3.20862117E-16  4.34492347E-17  1.29467594E-16
 -1.11740401E-17  3.05429925E-17  1.90876256E-17 -1.30686253E-16  2.27384631E-17
  1.09784958E-15 -1.53365331E-15 -6.14729712E-02 -5.81535726E-02  1.27535662E-02
 -9.28989864E-02 -8.78826555E-02  1.92734035E-02 -3.34698533E-01 -3.16625584E-01
  6.94386463E-02  8.26485269E-01  7.81856972E-01 -1.71467792E-01  2.30862055E-17
  3.56840192E-17 -4.56611847E-17  9.60002472E-17  9.18004190E-17 -5.87226141E-20
  2.90228848E-16 -4.43818417E-16 -2.45070952E-16  6.63917528E-16  8.60820505E-17
 -5.69183194E-16  2.39886558E-16  4.16380481E-15 -6.03808486E-15 -5.58582568E-02
  4.99940392E-02 -4.12779462E-02 -8.44139356E-02  7.55518316E-02 -6.23799255E-02
 -3.04128403E-01  2.72199818E-01 -2.24743782E-01  7.50997153E-01 -6.72154544E-01
  5.54969344E-01 -6.89168700E-17 -6.14020369E-17 -1.78233217E-16  3.47738281E-16
  2.35348230E-16  9.53927012E-17  2.97288304E-16 -3.96599849E-17 -2.56748498E-16
 -5.66962742E-17 -3.72214042E-17  2.84666521E-16 -1.28820663E-15  1.86553016E-15
 -9.20913395E-16  1.83849223E-16 -2.64917934E-17  1.10622431E-16  5.31542356E-17
  8.85550840E-17  9.31819114E-17  1.10993310E-16  8.55524754E-17  2.58160864E-17
 -3.15257487E-16 -3.70541552E-16 -2.17463510E-16  2.34743203E-02 -4.49154049E-03
  5.92460579E-02 -8.06995075E-03  1.34398124E-01  1.47333224E-01 -2.81905134E-02
  3.71849434E-01 -5.06498951E-02  8.43530661E-01  2.38258769E-18 -2.53416156E-17
  1.77289905E-16 -4.57456372E-16  4.78664620E-16 -3.64516759E-17  4.11237577E-17
 -8.03581229E-17 -9.87935135E-17 -9.13034568E-17 -1.07715868E-16 -2.72361223E-16
 -1.08619684E-16 -8.21608685E-17  6.58656617E-16  1.50042517E-16  2.39090830E-16
  8.81319578E-04 -9.42211842E-02  2.65259059E-02  1.12066576E-01 -8.26700708E-03
  5.53147665E-03 -5.91365827E-01  1.66486066E-01  7.03369886E-01 -5.18866911E-02
  3.79477510E-18 -6.52323452E-17  5.36706411E-16 -9.54832017E-16  5.29096556E-16
  9.38236824E-17 -2.77693701E-19  2.00771145E-17 -4.62516875E-17  1.26481790E-16
 -7.44730095E-17  1.27007109E-16 -1.47218759E-16 -8.47604784E-18 -4.00695291E-16
 -1.52225886E-17  1.82672570E-16 -7.17519196E-02  9.68831348E-02 -3.78547370E-03
  8.45769048E-02  2.25173375E-02 -4.50340692E-01  6.08073180E-01 -2.37589859E-02
  5.30834883E-01  1.41326858E-01 -1.01398189E-18  1.05798312E-17 -1.65348325E-16
  5.55174766E-16 -6.11408539E-16 -9.38484852E-17 -5.19121556E-17  1.03079315E-17
 -9.73540197E-17 -8.16966393E-17  2.24710356E-18 -1.38938377E-16  1.31559072E-16
  1.47043181E-16  4.56174154E-16  1.09727932E-18 -4.74936273E-16  6.69018975E-02
  5.36364666E-02  1.07101958E-01  1.50726431E-02 -5.62009297E-02  4.19900219E-01
  3.36641634E-01  6.72210167E-01  9.46012948E-02 -3.52737121E-01  6.14401595E-17
 -4.02145187E-16  3.79115841E-16  2.31056193E-15 -3.78622195E-15  2.00238337E-16
  2.70220801E-16 -7.84685078E-17  5.16030437E-16  7.78509215E-16 -2.43446078E-16
 -2.72484823E-17 -4.47335916E-16  2.32444411E-16 -5.28099266E-16 -2.17009117E-16
 -2.00738973E-16  1.09696265E-01  3.23770763E-02 -8.06871404E-02  4.69554455E-02
  2.03105573E-02  6.88492966E-01  2.03210102E-01 -5.06421331E-01  2.94709158E-01
  1.27476317E-01 -8.12430895E-02  6.33349713E-01 -2.59703140E+00  3.22590420E+00
 -1.20528222E+00 -1.91173652E-16  1.63805776E-16 -1.11589619E-16 -5.70406918E-16
  7.06522195E-16 -4.95312955E-16  5.94069838E-16 -9.66294521E-16  7.63810775E-16
 -2.61503349E-16  2.84422962E-16 -1.29209429E-16 -9.35389616E-16 -7.19237842E-17
 -8.10815832E-16 -2.17683038E-15  1.90209028E-15  3.77887998E-16  3.80604811E-16
 -2.18372853E-16  1.68676652E-15 -1.80927321E-15 -7.74204710E-17  6.16364549E-16
 -1.77993839E-15  1.83778066E-15 -4.66997392E-16 -3.25796731E-16  1.68007266E-15
 -4.70124928E-16 -1.35486109E-15  5.74433777E-15 -1.70259615E-15  1.91804717E-15
 -5.92197698E-15  2.07641181E-15 -1.32657976E-15  2.15320105E-15 -9.54315347E-16
 -6.18575711E-01  4.43414903E-01 -2.56775012E-01  6.92905662E-01  1.01164441E-01
  3.08731754E-01 -2.21308820E-01  1.28156665E-01 -3.45829906E-01 -5.04912735E-02
  1.40213377E-16 -8.02412708E-16  2.20466958E-15 -2.60356922E-15  1.08247086E-15